# vtk DataFile Version 2.0
sampleSurface
ASCII
DATASET POLYDATA
POINTS 20301 float
0 0 119.64
10 0 119.64
0 10 119.64
10 10 119.64
20 0 119.64
0 20 119.64
20 10 119.64
10 20 119.64
20 20 119.64
30 0 119.64
0 30 119.64
30 10 119.64
10 30 119.64
30 20 119.64
20 30 119.64
40 0 119.64
0 40 119.64
40 10 119.64
10 40 119.64
30 30 119.64
40 20 119.64
20 40 119.64
50 0 119.64
40 30 119.64
30 40 119.64
0 50 119.64
50 10 119.64
10 50 119.64
50 20 119.64
20 50 119.64
40 40 119.64
50 30 119.64
30 50 119.64
60 0 119.64
0 60 119.64
60 10 119.64
10 60 119.64
60 20 119.64
20 60 119.64
50 40 119.64
40 50 119.64
60 30 119.64
30 60 119.64
70 0 119.64
0 70 119.64
70 10 119.64
50 50 119.64
10 70 119.64
60 40 119.64
40 60 119.64
70 20 119.64
20 70 119.64
70 30 119.64
30 70 119.64
60 50 119.64
50 60 119.64
80 0 119.64
0 80 119.64
80 10 119.64
70 40 119.64
40 70 119.64
10 80 119.64
80 20 119.64
20 80 119.64
60 60 119.64
80 30 119.64
30 80 119.64
70 50 119.64
50 70 119.64
80 40 119.64
40 80 119.64
90 0 119.64
0 90 119.64
90 10 119.64
10 90 119.64
90 20 119.64
70 60 119.64
60 70 119.64
20 90 119.64
80 50 119.64
50 80 119.64
90 30 119.64
30 90 119.64
90 40 119.64
40 90 119.64
70 70 119.64
100 0 119.64
80 60 119.64
60 80 119.64
0 100 119.64
100 10 119.64
10 100 119.64
100 20 119.64
20 100 119.64
90 50 119.64
50 90 119.64
100 30 119.64
30 100 119.64
80 70 119.64
70 80 119.64
100 40 119.64
40 100 119.64
90 60 119.64
60 90 119.64
110 0 119.64
0 110 119.64
110 10 119.64
10 110 119.64
110 20 119.64
100 50 119.64
50 100 119.64
20 110 119.64
80 80 119.64
110 30 119.64
90 70 119.64
70 90 119.64
30 110 119.64
100 60 119.64
60 100 119.64
110 40 119.64
40 110 119.64
120 0 119.64
0 120 119.64
120 10 119.64
90 80 119.64
80 90 119.64
10 120 119.64
110 50 119.64
50 110 119.64
120 20 119.64
20 120 119.64
100 70 119.64
70 100 119.64
120 30 119.64
30 120 119.64
110 60 119.64
60 110 119.64
120 40 119.64
40 120 119.64
90 90 119.64
100 80 119.64
80 100 119.64
130 0 119.64
120 50 119.64
50 120 119.64
0 130 119.64
130 10 119.64
110 70 119.64
70 110 119.64
10 130 119.64
130 20 119.64
20 130 119.64
130 30 119.64
30 130 119.64
120 60 119.64
60 120 119.64
100 90 119.64
90 100 119.64
130 40 119.64
110 80 119.64
80 110 119.64
40 130 119.64
120 70 119.64
70 120 119.64
130 50 119.64
50 130 119.64
140 0 119.64
0 140 119.64
140 10 119.64
10 140 119.64
140 20 119.64
100 100 119.64
20 140 119.64
110 90 119.64
90 110 119.64
140 30 119.64
130 60 119.64
60 130 119.64
30 140 119.64
120 80 119.64
80 120 119.64
140 40 119.64
40 140 119.64
130 70 119.64
70 130 119.64
140 50 119.64
110 100 119.64
100 110 119.64
50 140 119.64
150 0 119.64
120 90 119.64
90 120 119.64
0 150 119.64
150 10 119.64
10 150 119.64
150 20 119.64
20 150 119.64
140 60 119.64
60 140 119.64
130 80 119.64
80 130 119.64
150 30 119.64
30 150 119.64
150 40 119.64
40 150 119.64
110 110 119.64
120 100 119.64
100 120 119.64
140 70 119.64
70 140 119.64
150 50 119.64
130 90 119.64
90 130 119.64
50 150 119.64
160 0 119.64
0 160 119.64
160 10 119.64
10 160 119.64
160 20 119.64
140 80 119.64
80 140 119.64
20 160 119.64
150 60 119.64
60 150 119.64
160 30 119.64
120 110 119.64
110 120 119.64
30 160 119.64
130 100 119.64
100 130 119.64
160 40 119.64
40 160 119.64
150 70 119.64
70 150 119.64
140 90 119.64
90 140 119.64
160 50 119.64
50 160 119.64
120 120 119.64
170 0 119.64
150 80 119.64
80 150 119.64
0 170 119.64
170 10 119.64
130 110 119.64
110 130 119.64
10 170 119.64
160 60 119.64
60 160 119.64
170 20 119.64
20 170 119.64
140 100 119.64
100 140 119.64
170 30 119.64
30 170 119.64
170 40 119.64
160 70 119.64
70 160 119.64
40 170 119.64
150 90 119.64
90 150 119.64
130 120 119.64
120 130 119.64
170 50 119.64
50 170 119.64
140 110 119.64
110 140 119.64
160 80 119.64
80 160 119.64
180 0 119.64
0 180 119.64
180 10 119.64
170 60 119.64
150 100 119.64
100 150 119.64
60 170 119.64
10 180 119.64
180 20 119.64
20 180 119.64
180 30 119.64
30 180 119.64
160 90 119.64
90 160 119.64
170 70 119.64
130 130 119.64
70 170 119.64
180 40 119.64
140 120 119.64
120 140 119.64
40 180 119.64
150 110 119.64
110 150 119.64
180 50 119.64
50 180 119.64
170 80 119.64
80 170 119.64
160 100 119.64
100 160 119.64
180 60 119.64
60 180 119.64
190 0 119.64
0 190 119.64
190 10 119.64
10 190 119.64
190 20 119.64
140 130 119.64
130 140 119.64
20 190 119.64
150 120 119.64
120 150 119.64
190 30 119.64
170 90 119.64
90 170 119.64
30 190 119.64
180 70 119.64
70 180 119.64
190 40 119.64
160 110 119.64
110 160 119.64
40 190 119.64
190 50 119.64
50 190 119.64
180 80 119.64
80 180 119.64
170 100 119.64
100 170 119.64
140 140 119.64
150 130 119.64
130 150 119.64
190 60 119.64
60 190 119.64
200 0 119.64
160 120 119.64
120 160 119.64
0 200 119.64
200 10 119.64
10 200 119.64
200 20 119.64
20 200 119.64
180 90 119.64
90 180 119.64
200 30 119.64
30 200 119.64
190 70 119.64
170 110 119.64
110 170 119.64
70 190 119.64
200 40 119.64
40 200 119.64
150 140 119.64
140 150 119.64
180 100 119.64
100 180 119.64
200 50 119.64
190 80 119.64
160 130 119.64
130 160 119.64
80 190 119.64
50 200 119.64
170 120 119.64
120 170 119.64
200 60 119.64
60 200 119.64
210 0 119.64
0 210 119.64
210 10 119.64
190 90 119.64
90 190 119.64
10 210 119.64
210 20 119.64
180 110 119.64
110 180 119.64
20 210 119.64
200 70 119.64
70 200 119.64
210 30 119.64
150 150 119.64
30 210 119.64
160 140 119.64
140 160 119.64
210 40 119.64
40 210 119.64
170 130 119.64
130 170 119.64
190 100 119.64
100 190 119.64
200 80 119.64
80 200 119.64
210 50 119.64
50 210 119.64
180 120 119.64
120 180 119.64
210 60 119.64
60 210 119.64
200 90 119.64
160 150 119.64
150 160 119.64
90 200 119.64
190 110 119.64
110 190 119.64
220 0 119.64
0 220 119.64
220 10 119.64
170 140 119.64
140 170 119.64
10 220 119.64
220 20 119.64
20 220 119.64
210 70 119.64
70 210 119.64
220 30 119.64
180 130 119.64
130 180 119.64
30 220 119.64
220 40 119.64
200 100 119.64
100 200 119.64
40 220 119.64
210 80 119.64
190 120 119.64
120 190 119.64
80 210 119.64
220 50 119.64
50 220 119.64
160 160 119.64
170 150 119.64
150 170 119.64
220 60 119.64
180 140 119.64
140 180 119.64
60 220 119.64
200 110 119.64
110 200 119.64
210 90 119.64
90 210 119.64
230 0 119.64
0 230 119.64
230 10 119.64
190 130 119.64
130 190 119.64
10 230 119.64
230 20 119.64
220 70 119.64
70 220 119.64
20 230 119.64
230 30 119.64
30 230 119.64
210 100 119.64
100 210 119.64
200 120 119.64
120 200 119.64
230 40 119.64
170 160 119.64
160 170 119.64
40 230 119.64
220 80 119.64
80 220 119.64
180 150 119.64
150 180 119.64
230 50 119.64
50 230 119.64
190 140 119.64
140 190 119.64
210 110 119.64
110 210 119.64
230 60 119.64
220 90 119.64
90 220 119.64
60 230 119.64
200 130 119.64
130 200 119.64
240 0 119.64
0 240 119.64
240 10 119.64
10 240 119.64
230 70 119.64
170 170 119.64
70 230 119.64
240 20 119.64
180 160 119.64
160 180 119.64
20 240 119.64
220 100 119.64
100 220 119.64
240 30 119.64
210 120 119.64
120 210 119.64
30 240 119.64
190 150 119.64
150 190 119.64
240 40 119.64
40 240 119.64
230 80 119.64
80 230 119.64
200 140 119.64
140 200 119.64
240 50 119.64
50 240 119.64
220 110 119.64
110 220 119.64
230 90 119.64
210 130 119.64
130 210 119.64
90 230 119.64
240 60 119.64
60 240 119.64
180 170 119.64
170 180 119.64
190 160 119.64
160 190 119.64
250 0 119.64
240 70 119.64
200 150 119.64
150 200 119.64
70 240 119.64
0 250 119.64
250 10 119.64
10 250 119.64
220 120 119.64
120 220 119.64
250 20 119.64
230 100 119.64
100 230 119.64
20 250 119.64
250 30 119.64
30 250 119.64
210 140 119.64
140 210 119.64
240 80 119.64
80 240 119.64
250 40 119.64
40 250 119.64
180 180 119.64
250 50 119.64
230 110 119.64
190 170 119.64
170 190 119.64
110 230 119.64
50 250 119.64
220 130 119.64
130 220 119.64
200 160 119.64
160 200 119.64
240 90 119.64
90 240 119.64
250 60 119.64
60 250 119.64
210 150 119.64
150 210 119.64
230 120 119.64
120 230 119.64
250 70 119.64
70 250 119.64
260 0 119.64
240 100 119.64
100 240 119.64
0 260 119.64
260 10 119.64
10 260 119.64
260 20 119.64
220 140 119.64
140 220 119.64
20 260 119.64
260 30 119.64
190 180 119.64
180 190 119.64
30 260 119.64
250 80 119.64
200 170 119.64
170 200 119.64
80 250 119.64
260 40 119.64
40 260 119.64
240 110 119.64
210 160 119.64
160 210 119.64
110 240 119.64
230 130 119.64
130 230 119.64
260 50 119.64
50 260 119.64
250 90 119.64
90 250 119.64
220 150 119.64
150 220 119.64
260 60 119.64
60 260 119.64
240 120 119.64
120 240 119.64
190 190 119.64
200 180 119.64
180 200 119.64
260 70 119.64
250 100 119.64
230 140 119.64
140 230 119.64
100 250 119.64
70 260 119.64
270 0 119.64
0 270 119.64
270 10 119.64
210 170 119.64
170 210 119.64
10 270 119.64
270 20 119.64
20 270 119.64
270 30 119.64
30 270 119.64
260 80 119.64
220 160 119.64
160 220 119.64
80 260 119.64
270 40 119.64
240 130 119.64
130 240 119.64
40 270 119.64
250 110 119.64
110 250 119.64
270 50 119.64
230 150 119.64
150 230 119.64
50 270 119.64
260 90 119.64
90 260 119.64
200 190 119.64
190 200 119.64
270 60 119.64
210 180 119.64
180 210 119.64
60 270 119.64
250 120 119.64
120 250 119.64
240 140 119.64
140 240 119.64
220 170 119.64
170 220 119.64
260 100 119.64
100 260 119.64
270 70 119.64
70 270 119.64
280 0 119.64
0 280 119.64
280 10 119.64
230 160 119.64
160 230 119.64
10 280 119.64
280 20 119.64
20 280 119.64
280 30 119.64
270 80 119.64
80 270 119.64
30 280 119.64
250 130 119.64
130 250 119.64
260 110 119.64
110 260 119.64
280 40 119.64
200 200 119.64
40 280 119.64
240 150 119.64
150 240 119.64
210 190 119.64
190 210 119.64
220 180 119.64
180 220 119.64
280 50 119.64
50 280 119.64
270 90 119.64
90 270 119.64
230 170 119.64
170 230 119.64
280 60 119.64
260 120 119.64
120 260 119.64
60 280 119.64
250 140 119.64
140 250 119.64
270 100 119.64
100 270 119.64
240 160 119.64
160 240 119.64
280 70 119.64
70 280 119.64
290 0 119.64
210 200 119.64
200 210 119.64
0 290 119.64
290 10 119.64
10 290 119.64
290 20 119.64
260 130 119.64
220 190 119.64
190 220 119.64
130 260 119.64
20 290 119.64
280 80 119.64
80 280 119.64
290 30 119.64
270 110 119.64
250 150 119.64
150 250 119.64
110 270 119.64
30 290 119.64
230 180 119.64
[...]
CELL_DATA 20000
FIELD attributes 1
U 3 20000 float
8.2054052 -0.12644337 -0.037722021
8.1328983 0.032794714 0.10947806
8.1614733 -0.10957554 -0.1389831
8.2258596 -0.12713812 0.044461254
8.241518 0.06190969 0.21178032
8.1435661 0.087215632 -0.063490547
8.190237 0.060790345 0.11442976
7.9873257 -0.086763047 0.047553621
8.5838833 -0.29004851 -0.1588067
8.2713003 0.17818922 0.27908361
8.1930008 0.12329449 -0.05147751
8.2300968 0.19884787 0.17142935
8.0330086 0.0018715628 -0.023581615
8.5522556 -0.25517702 0.018336901
8.0586596 -0.12730339 0.23679316
8.4033003 -0.27723444 0.048429515
8.3086948 0.13293682 0.26836047
8.2579966 0.28201532 -0.0035800633
8.2817745 0.30603504 0.19789053
7.9913235 -0.0028673515 -0.040088203
8.5656872 -0.12938367 0.16237171
8.0997047 -0.035640936 0.23671755
8.3036757 -0.12328095 0.15594189
8.3340197 0.018583249 0.20686641
8.3254871 -0.22763523 -0.1347612
8.3250399 0.027715145 0.17101175
8.3402033 0.27446496 -0.029572964
8.2360668 0.32787791 0.22496326
8.1713409 0.050216857 -0.040468287
8.6332006 -0.026274286 0.21648754
8.0595303 -0.0078875916 0.16214499
8.1810627 0.11337322 0.26605237
8.3891687 0.009784583 0.14603585
8.3572712 -0.16461787 -0.065717697
8.4747181 -0.13911627 0.035416082
8.6659355 -0.20636074 -0.16505204
8.2538252 -0.14005604 0.066357337
8.3836813 0.18373519 -0.073969766
8.3307848 0.17385055 0.14856644
8.2643299 0.024139101 0.0057697585
8.5572767 0.14331821 0.25833368
8.2490244 0.037114669 0.076560318
8.0979567 0.25598922 0.35223499
8.3709536 0.010833948 -0.0084393499
8.2529678 -0.027541859 0.080857404
8.4324999 -0.17480673 -0.12860522
8.8877859 -0.098324008 -0.014950041
8.4547329 -0.022325583 0.0091773877
8.7909184 -0.098925985 -0.12247994
8.3369436 -0.40064067 -0.13974802
8.4043808 0.018963236 -0.087188102
8.2467432 0.052920293 0.11369483
8.4652796 -0.096959159 0.0099767959
8.6823168 0.1032643 0.18396957
8.2850142 -0.012366869 -0.066315331
7.9674044 0.43698165 0.43389979
8.5653563 0.0021434682 -0.14756329
8.1590395 0.076368123 0.24639107
8.3744841 -0.25297052 -0.33526114
8.8910618 0.043927081 0.1847942
8.4792824 -0.016499864 -0.15158708
8.8840427 -0.1579365 -0.06902533
8.6238184 -0.15518434 -0.00057395757
8.978363 -0.21190366 -0.25105083
8.271245 -0.46547493 -0.19523466
8.4013176 -0.27997833 -0.20280263
8.4043322 -0.15772797 -0.026507938
8.5609598 -0.19101128 -0.0045371139
8.5484629 0.04961912 0.18611813
8.4323092 -0.1304668 -0.19526294
8.0728683 0.36724705 0.36847299
8.5814171 -0.048490603 -0.32898182
7.9535666 0.29601133 0.41272452
8.5382328 -0.35066071 -0.40457353
8.9071903 0.056581419 0.29139221
8.4727802 -0.12842377 -0.38417947
8.8101311 -0.088828564 0.055620387
8.6894512 -0.10968316 -0.12201878
8.9959488 -0.15045443 -0.23863938
8.6933136 0.020076154 -0.24958818
8.9233837 -0.24352759 -0.31690788
8.4247322 -0.48368815 -0.35513163
8.3319578 -0.4121061 -0.16691427
8.3117943 -0.24213848 -0.02013739
8.6024714 -0.38733107 -0.11848969
8.6479893 -0.13882874 0.058180295
8.4745703 -0.21983705 -0.27817869
8.04951 0.25196597 0.27146393
8.6864452 -0.12363489 -0.47759295
7.8386531 0.31653166 0.44309217
8.5876265 -0.43198827 -0.41896033
8.6120634 0.10060201 0.35056132
8.5677929 -0.1792326 -0.51952088
8.8935881 -0.052944709 0.056125414
8.6702538 -0.20024619 -0.31554151
8.7858133 0.016168728 -0.090768754
8.6514473 0.034839254 -0.26594687
9.0849266 -0.40778512 -0.29020372
8.497077 -0.071449891 -0.055313196
8.8230915 -0.083923407 -0.21821579
8.4230833 -0.3204214 -0.25769249
8.4076099 -0.47507206 -0.29927731
8.3798513 -0.28008813 -0.093580775
8.5527468 -0.44305164 -0.1755615
8.4681387 -0.3201735 0.023317685
8.5442524 -0.38186291 -0.35262698
8.2918444 0.040208485 0.035728931
8.5736742 -0.22198611 -0.51837313
7.7423229 0.30052644 0.40256706
8.7786331 -0.40695792 -0.37680069
8.4370365 0.070661627 0.24040876
8.5424814 -0.31586185 -0.54534298
8.7205696 0.094436072 0.17588998
8.7207031 -0.10594997 -0.4550871
8.6032667 0.065566383 0.0061583817
8.5606728 -0.099692419 -0.2748003
9.0597572 -0.32393166 -0.24780799
8.5098228 0.011420676 -0.059220463
9.094511 -0.22554398 -0.25111192
8.2925158 -0.073399782 -0.0034283129
8.8498363 0.054762527 -0.087226972
8.4551268 -0.16215554 -0.28263393
8.4602423 -0.33197105 -0.22942372
8.2931995 -0.27584606 -0.019049365
8.5405283 -0.47197679 -0.30492941
8.4467134 -0.36676371 -0.1385781
8.6351271 -0.4038811 -0.2876237
8.3202648 -0.23819432 -0.13023268
8.4819651 -0.3668932 -0.55756414
7.7952657 0.16736174 0.2474378
8.691165 -0.31665748 -0.29023504
8.1744814 0.054119486 0.10527179
8.6348724 -0.34714723 -0.54844028
8.7480459 0.20641881 0.15942477
8.6542854 -0.17208074 -0.49195355
8.3359957 0.058296107 0.17372042
8.4792786 -0.086622067 -0.26513726
8.8615475 -0.22566438 -0.19171363
8.4232588 -0.0088577308 -0.006536155
9.309412 -0.17812568 -0.31033841
8.3953962 -0.023779625 0.050215319
9.0375528 -0.15958107 -0.07517612
8.3513145 -0.1365394 -0.030687321
8.6800365 0.12528622 -0.22423416
8.4572821 -0.1460238 -0.1485343
8.6514492 -0.055043779 -0.2204572
8.2035332 -0.13877258 -0.06316106
8.6106434 -0.41719577 -0.29172653
8.3649054 -0.42150193 -0.15783453
8.7446518 -0.42496422 -0.33279279
8.4741554 -0.30336809 -0.28631729
8.3743496 -0.41651446 -0.41593373
7.9013505 -0.1098891 0.077120416
8.6114922 -0.20607647 -0.28774026
8.1293392 0.093709625 -0.059492927
8.5159016 -0.36488357 -0.45012915
8.4618464 0.20402907 0.16437423
8.741107 -0.10428671 -0.46072069
8.2855215 -0.052359324 0.15976025
8.4174252 -0.19441901 -0.24386302
8.5368032 -0.069228165 0.0030780951
8.3518105 0.03505354 -0.025549142
9.3093843 -0.17418234 -0.32227063
8.4064817 -0.010109374 0.15611188
9.124526 -0.24554861 -0.11008168
8.4529285 -0.11644001 -0.0061655589
8.7478352 -0.054020971 -0.1522834
8.1933432 -0.22274509 0.086014092
8.3528051 -0.20176144 -0.1850341
8.363698 -0.1126409 -0.12478147
8.8422298 0.056662954 -0.12560533
8.2286386 -0.14119764 -0.037781138
8.8453131 -0.22099961 -0.2945326
8.2848415 -0.21315777 -0.17217681
8.8810701 -0.36886188 -0.26482233
8.4517326 -0.45289066 -0.26183224
8.3592482 -0.46695521 -0.39875135
8.0818768 -0.16312777 -0.072197504
8.4150238 -0.15049636 -0.182905
8.1972694 0.067845628 -0.14823397
8.5177422 -0.30296829 -0.442175
8.3047514 0.1585103 0.12130749
8.6531038 -0.13670504 -0.26262948
8.0957785 -0.23634624 0.15838991
8.4328213 -0.19441155 -0.2592319
8.3099794 -0.070962153 0.070939101
8.2861137 -0.096086793 0.0042031151
9.0469961 -0.087952211 -0.22498588
8.5102644 0.0063717719 0.18277001
9.1997967 -0.34685922 -0.1387459
8.5362177 -0.099675089 0.034291279
8.7395906 -0.18920729 -0.13378461
8.2331696 -0.22589171 0.093145959
8.3817396 -0.31026438 -0.25244221
8.1146488 -0.21030733 0.10752088
8.4756784 -0.20934162 -0.03717966
8.4524956 -0.29595298 -0.14501569
8.93295 0.12838662 0.018446133
8.234251 -0.069844432 -0.12761512
9.1210289 -0.15906854 -0.23880717
8.3551769 -0.15482379 -0.059587825
8.9938889 -0.19776563 -0.31283695
8.4032421 -0.25752789 -0.16946438
8.4493284 -0.37673381 -0.2878373
8.2768755 -0.3363001 -0.13864392
8.324007 -0.20323162 -0.18679346
8.3129644 0.1343212 -0.11310599
8.3956375 -0.22494957 -0.35422596
8.0641756 -0.068735383 0.050144054
8.6892319 -0.15831284 -0.12193855
8.1754484 -0.35072121 0.094276406
8.4655104 -0.1725218 -0.17407379
8.0524902 -0.11948936 0.18898308
8.2472839 -0.14823064 -0.052314278
8.679122 -0.095295377 -0.13890195
8.5265646 -0.076563425 0.23449335
9.0918322 -0.27490082 -0.10666268
8.6625824 -0.10456276 0.03128257
8.7900105 -0.30097029 -0.13900119
8.2827444 -0.21424527 0.1029412
8.4489756 -0.33113262 -0.2876921
8.1912308 -0.28806025 0.050264221
8.5211964 -0.2046174 -0.096894339
8.2348642 -0.32898754 0.081763692
8.5406866 -0.21946703 0.034343496
8.3752165 -0.26705366 -0.091097437
9.0734682 -0.13187955 -0.021295108
8.5143089 -0.19402479 -0.19712433
9.2477217 -0.013591777 -0.14395104
8.3183546 0.031866673 0.031809792
9.0527039 -0.1097378 -0.29576278
8.3668871 -0.23559816 0.0066932118
8.6118078 -0.18435422 -0.29502311
8.3785992 -0.13104595 -0.10706244
8.3507032 -0.2458325 -0.096857689
8.5080233 0.036622666 -0.009592047
8.4234972 -0.21644609 -0.27856335
7.8692398 -0.19345932 0.12526603
8.5787745 -0.15461569 0.03281258
8.1271944 -0.45423579 0.082388662
8.5570211 -0.19049129 -0.11675324
8.0787668 -0.16193868 0.1464162
8.2842865 -0.23451103 -0.036017269
8.3301926 -0.16604471 -0.013729794
8.5556154 -0.13932726 0.15023749
8.8830013 -0.15940924 -0.050448053
8.7411633 -0.11609909 0.026759092
8.9453373 -0.34382564 -0.19782734
8.3438263 -0.17956464 0.078375809
8.5040035 -0.19586159 -0.15862505
8.2122641 -0.28466871 0.052866504
8.6509705 -0.17835686 -0.13421427
8.2675734 -0.44532001 0.049409274
8.5988369 -0.26684907 -0.095263295
8.3054323 -0.30178893 -0.0992686
8.4760027 -0.37139902 0.058994114
8.4793129 -0.26392034 -0.17904155
8.9343624 -0.26221919 0.033968687
8.7053099 -0.23571521 -0.26597238
9.2279539 -0.10549023 -0.1185477
8.5175829 0.024823137 0.030361941
9.0003414 0.1118423 -0.24169587
8.3106585 -0.083044842 0.095254153
8.7259741 -0.042191744 -0.28675514
8.4570246 -0.080602832 -0.017127946
8.5493326 -0.26035663 -0.11123302
8.4572487 -0.0079230368 0.16521084
8.4266567 -0.17074449 -0.09056168
7.8913312 -0.35649511 0.1648652
8.530714 -0.2448504 0.051720649
8.2643604 -0.35520947 0.18751626
8.5978022 -0.096821874 0.025520677
8.1060162 -0.23944947 0.082750246
8.3562956 -0.30463815 -0.037201036
8.1798925 -0.18870269 0.05565615
8.5561237 -0.2313932 0.098507255
8.599432 -0.083612129 0.0099935727
8.7651911 -0.14125767 0.013127271
8.9780731 -0.27457964 -0.20952491
8.4877653 -0.15230714 0.025260709
8.743907 -0.10138909 -0.074461788
8.2919865 -0.2720508 0.059614811
8.5171394 -0.054357991 -0.025379816
8.2612982 -0.44205227 0.030034006
8.7288027 -0.31807807 -0.34731624
8.25492 -0.44520488 -0.11840594
8.6058521 -0.41692728 -0.058695424
8.309968 -0.33514056 -0.22270851
7.9295406 0.011747461 0.21256979
8.4165802 -0.10621785 -0.067647532
8.9049482 -0.31534082 -0.16464853
8.8684254 -0.25502455 -0.29915103
8.9076405 -0.14934924 0.011408973
8.6089945 -0.0087083867 -0.070638828
8.9272785 0.12352636 -0.22218513
8.4328833 -0.1172727 0.08488813
8.7808647 0.17074312 -0.22763063
8.3768053 0.1130078 0.047445744
8.7538815 -0.20950738 -0.097736545
8.4937668 -0.19872274 0.2490931
8.5550652 -0.1897486 0.079518586
7.7919331 -0.32171932 0.36623168
8.4893742 -0.18208557 0.033612818
8.282877 -0.23706551 0.27401349
8.6419888 -0.16312894 0.10450674
8.2808666 -0.14705899 0.065595314
8.4734583 -0.25072485 0.015350506
8.189662 -0.31624144 0.057952136
8.5151949 -0.27784097 -0.0078028445
8.3578615 -0.025229439 0.07508076
8.7210884 -0.16199329 0.001903393
9.0368891 -0.21723561 -0.23801142
8.5362539 -0.1361969 -0.011612282
8.7922173 0.039521776 0.064786598
8.4294376 -0.26582748 0.056235418
8.4733171 -0.10652767 -0.0037378634
8.3088551 -0.405817 -0.0099000549
8.6044559 -0.2782931 -0.4546046
8.2505436 -0.4784084 -0.10397284
8.7929173 -0.47466308 -0.24688613
8.261939 -0.45603141 -0.22203317
8.1469688 -0.0013422589 0.092485689
7.8307304 -0.16886078 -0.15878616
7.2513356 0.069510818 0.42392418
8.3880777 0.058322832 -0.11697651
8.7332478 -0.12971684 -0.22367075
8.7680092 -0.17963919 -0.23061357
8.643796 -0.19615343 0.011367379
8.7815466 -0.12985307 -0.26137954
8.7163153 0.14373894 -0.091562591
8.5436764 -0.19220862 -0.07464388
8.7292118 0.12963982 -0.21026029
8.3391905 0.1105587 0.019306427
9.0082893 -0.037598245 -0.053882159
8.2132931 -0.25510651 0.30033189
8.6360931 -0.099340536 0.27584276
8.0769367 -0.28291106 0.42405331
8.4334383 -0.24297565 -0.027640244
8.1798811 -0.029940397 0.44291994
8.6538515 -0.083698109 0.12006471
8.375948 -0.23070435 0.024393363
8.6199102 -0.26031271 0.10141392
8.2582121 -0.23194461 0.064273611
8.5675144 -0.25478891 -0.040293787
8.2178249 -0.18658255 0.085285433
8.5794563 -0.17058986 -0.0052945577
8.807065 -0.10412789 -0.17373146
8.6356125 -0.15615498 -0.062197231
8.9317045 -0.027096728 0.028535556
8.4663763 -0.21069652 0.11538267
8.2415104 -0.1211111 0.043938223
8.3963337 -0.35484859 -0.085550748
8.5171604 -0.31584033 -0.52758342
8.2104836 -0.49286205 -0.086248174
8.880208 -0.37306643 -0.39265236
8.1785698 -0.46453109 -0.18009031
8.3810625 -0.10368201 -0.043929867
7.8671551 -0.29795104 -0.13006856
7.277833 -0.040697578 0.35777059
7.713603 -0.29421601 0.030003879
7.0368881 -0.1135665 0.57602572
8.2394323 0.10380691 0.02137283
8.638896 0.17430981 -0.33103588
8.4472761 -0.039036226 -0.15924431
8.3859854 -0.1879831 0.025548298
8.87006 -0.30528185 -0.36358863
8.5594807 0.085545287 -0.06888397
8.7147694 -0.23774303 -0.25518703
8.6229706 0.1119151 -0.10599446
8.2453432 0.013583188 -0.12633893
9.01616 0.056105185 -0.01132035
8.1482515 -0.35481033 0.18063273
8.7994194 0.021142343 0.34135407
8.0635271 -0.092353195 0.50403398
8.5205784 -0.12317909 -0.054321192
8.1007862 0.057253458 0.41236585
8.6047277 -0.13725977 0.10487182
8.3715563 -0.12771994 0.12926441
8.687315 -0.12751198 0.14391519
8.3417387 -0.26212996 0.012312775
8.6276255 -0.20887052 -0.0010882856
8.1866636 -0.27906793 0.1228411
8.4889479 -0.16192496 -0.00055157603
8.5984344 -0.15087776 -0.10155286
8.6151276 -0.18107331 -0.083916917
8.7519588 -0.1260138 -0.0075073261
8.5484247 -0.22672929 0.10641265
8.1619463 -0.31009525 0.012269706
8.3792267 -0.21584916 -0.10620739
8.3621655 -0.30212009 -0.46024728
8.2923222 -0.49829394 -0.089003868
8.914711 -0.31446436 -0.44969773
8.086216 -0.41960156 -0.1305657
8.4628506 -0.096895643 -0.16667935
7.8201275 -0.38283408 -0.089625955
7.4842873 -0.19979772 0.28237092
7.7507305 -0.35925716 0.087718464
6.973413 -0.16632937 0.53747141
8.0171652 -0.22902183 0.01908051
7.8690076 -0.19009797 0.17872696
8.0585127 0.14226389 0.10426339
8.5742598 0.32318401 -0.27600008
8.0850458 0.032830775 0.062336963
8.2857761 -0.013033016 -0.074932806
8.8222246 -0.35435629 -0.32721838
8.371582 -0.0064838408 -0.030860787
8.7763367 -0.35687521 -0.39567047
8.5439644 -0.017350307 -0.064822868
8.222806 -0.15135479 -0.29825872
9.0002823 0.14781423 0.070619524
7.9244046 -0.32819334 0.019734772
8.810853 0.14344938 0.34717906
8.3391104 0.054303829 0.36035496
8.6049395 -0.05399147 -0.056854639
7.7795486 0.096929289 0.38863873
8.6245041 -0.074164368 0.0058733337
8.3327618 -0.2128679 0.14139858
8.7256088 -0.095423721 0.23327367
8.3525057 -0.12985021 0.052824099
8.717988 -0.094455883 0.053254422
8.199254 -0.44880369 0.13970938
8.3633461 -0.094359785 0.035905421
8.3363008 -0.17591098 0.022648936
8.6044254 -0.22407284 -0.091196202
8.6821966 -0.31044719 -0.123216
8.4850979 -0.14580274 0.12615988
8.1143169 -0.37640664 0.026466653
8.4129324 -0.15658358 -0.14317378
8.279994 -0.40060842 -0.31235316
8.2500629 -0.39280802 -0.058953881
8.9280777 -0.17499691 -0.43949741
8.0809031 -0.38830999 -0.069495223
8.4857683 -0.24078444 -0.20047802
7.8563528 -0.4413729 -0.023925332
7.5558171 -0.29466408 0.23983543
7.6886864 -0.41108754 0.038620938
7.0818739 -0.26352707 0.49211085
7.9419279 -0.32773274 0.052949738
7.7461605 -0.23339561 0.15787387
7.8321786 -0.1258375 0.0056223255
8.2305126 -0.29566959 0.083156198
7.8767853 0.045631852 0.3011044
8.3781528 0.38562098 -0.084650949
7.7374825 0.070210919 0.24498804
8.3375616 0.096024685 -0.21279064
8.6867714 -0.37869999 -0.10688824
8.2698784 0.047424294 -0.04245428
8.7444983 -0.31494272 -0.40165949
8.4726524 -0.11182366 -0.04524165
8.2269459 -0.40104663 -0.45089948
8.8395233 0.10963526 0.10855626
7.9930382 -0.31214008 -0.2073608
8.8111687 0.19462991 0.19196589
8.3510809 0.22934355 0.15494065
8.8023338 0.10856725 -0.014047652
7.7315912 0.047779866 0.20325999
8.6127968 -0.034310825 0.033167068
8.1977758 -0.1359165 0.16664349
8.6968822 -0.029755607 0.22950454
8.3367891 -0.12094633 0.14581075
8.8277521 -0.030950321 0.18010151
8.2963724 -0.5045656 0.15746027
8.3299198 -0.052244127 0.090342276
8.2164965 -0.28989193 0.11099287
8.5154276 -0.22022054 -0.08488971
8.4886475 -0.40256765 -0.15231332
8.440999 -0.14144279 0.11191569
8.185544 -0.47235215 0.077234723
8.3206882 -0.032036673 -0.1071486
8.3672304 -0.38256076 -0.1713769
8.3078747 -0.32839981 -0.064685814
8.8558359 -0.18641272 -0.3200877
7.9809723 -0.25968045 -0.016924977
8.4485273 -0.22626624 -0.18794772
7.9285159 -0.47026893 0.032924384
7.6729593 -0.50142986 0.23089252
7.7148261 -0.39939827 0.080206744
7.1687088 -0.34758747 0.39852601
7.8090873 -0.39984399 -0.055075787
7.700624 -0.30815998 0.17842418
7.7485094 -0.16846424 0.004579836
8.1144371 -0.32415622 0.064906761
8.0939188 0.088291824 -0.086323269
8.3687248 -0.33604065 0.16757901
7.7560782 -0.0012765494 0.45646411
8.2715597 0.21076472 0.15696567
7.5367751 0.04953425 0.54023087
8.3314571 0.24546592 -0.26338249
8.401329 -0.25117084 0.18732546
8.2807541 0.041102782 -0.10661186
8.6720743 -0.36860976 -0.24976945
8.4983301 -0.099151671 -0.014453266
8.26231 -0.48353797 -0.45737249
8.7319927 0.0263971 0.087077826
8.090477 -0.25933594 -0.36378044
8.7192173 0.13500178 0.050527532
8.4686489 0.26622599 -0.12258899
8.9541702 0.21653241 -0.0004247023
7.5573792 -0.070807777 0.11692151
8.6846762 -0.0048558144 0.083676703
8.1173086 -0.11323063 0.12828432
8.622716 -0.0041499226 0.30846742
8.329278 -0.13874309 0.25692636
8.8254032 0.039412774 0.21140131
8.3207092 -0.49692714 0.1880338
8.3285246 0.05809455 0.18816037
8.2541199 -0.34352538 0.12439976
8.4110765 -0.2367987 -0.039267577
8.5164995 -0.396193 -0.12465961
8.3193693 -0.051802088 0.092562921
8.3335886 -0.45471397 0.15759146
8.2797155 -0.022801194 -0.051509965
8.4372597 -0.39724988 -0.0019753126
8.2809477 -0.15760529 -0.014906589
8.9366055 -0.12912774 -0.19071588
8.0219326 -0.21921875 0.027898364
8.3676968 -0.33006784 -0.086419649
7.9369187 -0.42112401 0.077693917
7.738349 -0.53060204 0.24196321
7.6865439 -0.41958207 0.037140757
7.344038 -0.4725894 0.35442683
7.7705655 -0.39925316 0.0089139296
7.6668029 -0.43696982 0.13663031
7.6675553 -0.25360534 -0.096458718
8.0429411 -0.34417614 0.12538379
8.0288477 0.089695215 -0.11932728
8.3503437 -0.41610622 0.14132002
7.9564538 0.082764596 -0.14754274
8.4237061 -0.35044751 0.037657663
7.642014 0.042666744 0.59120876
8.0396051 0.038766488 0.43149191
7.4824958 0.026433673 0.69662911
8.4069262 0.30763838 -0.17410408
8.1728334 -0.18064475 0.5114333
8.3012543 0.14524919 -0.061834954
8.5827761 -0.27417657 0.0070290128
8.5248299 -0.079593211 -0.079068385
8.3931131 -0.50245863 -0.31034523
8.6837072 -0.019936731 0.070269071
8.3105249 -0.22876599 -0.39382416
8.5589695 -0.0010424508 -0.098204002
8.4857473 0.1545821 -0.3080079
9.0711241 0.26712841 0.0052480842
7.6160212 -0.2241762 0.11067047
8.7833452 0.040563125 0.25165078
8.0075588 -0.11748686 0.095202819
8.5689487 -0.07918448 0.31315613
8.2702742 -0.22961092 0.3970454
8.8191519 0.032322023 0.2765165
8.3427 -0.47499451 0.14061242
8.3394403 0.094399452 0.25256237
8.3253012 -0.37657711 0.072818093
8.3581476 -0.16075955 0.0088083446
8.5707378 -0.31588963 -0.073702686
8.1975784 -0.03994197 0.13667949
8.4428883 -0.40407163 0.2352003
8.1839724 0.001794792 0.012225191
8.738759 -0.30584061 0.077968009
8.2599087 -0.083594546 -0.0062395511
8.9226456 -0.18603726 -0.05434157
7.9985852 -0.10118438 0.083340302
8.3547478 -0.26655918 0.025800809
8.0727549 -0.38285971 0.10839419
7.7730651 -0.63521272 0.28342202
7.6935086 -0.38825905 0.036795501
7.5009475 -0.49105999 0.31033
7.6841984 -0.44440609 -0.011102338
7.7281747 -0.55252868 0.078261673
7.6769481 -0.258977 -0.066920854
7.928021 -0.48489758 0.080386192
8.0616417 -0.074249111 -0.21706533
8.3182096 -0.38787028 0.20183709
7.8732595 0.18896544 -0.13502964
8.6155376 -0.42713809 -0.08999978
7.7132673 0.09978272 0.053402837
8.0078449 -0.10867393 0.18165292
7.6299729 0.082693726 0.63081115
7.8459105 -0.066667415 0.64683026
7.4693723 0.032594193 0.85059547
8.3899889 0.27267504 0.098555841
8.0144911 -0.065721288 0.69078916
8.4423532 0.2592721 -0.0026823545
8.5787716 -0.23501204 0.34365112
8.5919104 0.04658249 -0.066509672
8.413784 -0.321399 -0.054296866
8.6152954 -0.068279549 -0.039750975
8.5672398 -0.29721451 -0.27420831
8.5314865 -0.095548801 -0.18006562
8.4204903 -0.11754614 -0.27489254
9.0100555 0.18451124 -0.031314656
7.671876 -0.41461486 0.221338